<?xml version="1.0" encoding="UTF-8"?>

<!-- generated on Fri 21 Jun 2019 01:52:52 IST by Eclipse SUMO GUI Version 1.2.0
<configuration xmlns:xsi="http://www.w3.org/2001/XMLSchema-instance" xsi:noNamespaceSchemaLocation="http://sumo.dlr.de/xsd/sumoConfiguration.xsd">

    <input>
        <net-file value="aco.net.xml"/>
        <route-files value="aco.flow_routes.xml"/>
        <additional-files value="aco.add.xml"/>
    </input>

    <output>
        <tripinfo-output value="../output/tripinfo.xml"/>
    </output>

    <traci_server>
        <remote-port value="47751"/>
    </traci_server>

</configuration>
-->

<tripinfos xmlns:xsi="http://www.w3.org/2001/XMLSchema-instance" xsi:noNamespaceSchemaLocation="http://sumo.dlr.de/xsd/tripinfo_file.xsd">
</tripinfos>
